// Copyright (c) 2009-2019 The Regents of the University of Michigan
// This file is part of the HOOMD-blue project, released under the BSD 3-Clause License.

// Maintainer: mphoward

/*!
 * \file mpcd/RejectionVirtualParticleFillerGPU.cu
 * \brief Defines GPU functions and kernels used by mpcd::RejectionVirtualParticleFillerGPU
 */

#include "RejectionVirtualParticleFillerGPU.cuh"
#include "ParticleDataUtilities.h"
#include "hoomd/RandomNumbers.h"
#include "hoomd/RNGIdentifiers.h"

namespace mpcd
{
namespace gpu
{



} // end namespace gpu
} // end namespace mpcd
